 # Fcc Ag oriented X=[100] Y=[010] Z=[001].
 
           4  atoms
           1  atom types
 
      0.000000000000       4.160539841900  xlo xhi
      0.000000000000       4.160539841900  ylo yhi
      0.000000000000       4.160539841900  zlo zhi
 
Masses
 
            1   107.86820000            # Ag
 
Atoms # atomic
 
         1    1        0.000000000000       0.000000000000       0.000000000000
         2    1        2.080269920950       2.080269920950       0.000000000000
         3    1        0.000000000000       2.080269920950       2.080269920950
         4    1        2.080269920950       0.000000000000       2.080269920950
